# vtk DataFile Version 2.0
VTK from Matlab
ASCII
DATASET UNSTRUCTURED_GRID
POINTS 5 float
-6.5625 -442.2956 -50.0164
225.8324 -33.5042 29.0453
-130.1982 297.7075 -2.3526
-381.8566 -497.5433 20.4082
-259.5669 -271.3702 -20.2942

CELLS 4 2
2  1 2
2  2 3
2  3 4
2  4 5

POINT_DATA 5
SCALARS random1 float
LOOKUP_TABLE default
0.3692
0.6850
0.5979
0.7894
0.3677

SCALARS random2 float
LOOKUP_TABLE default
2.0603
0.8667
7.7193
2.0567
3.8827
